/*--------------------------------*- C++ -*----------------------------------*\
| =========                 |                                                 |
| \\      /  F ield         | OpenFOAM: The Open Source CFD Toolbox           |
|  \\    /   O peration     | Version:  5                                     |
|   \\  /    A nd           | Web:      www.OpenFOAM.org                      |
|    \\/     M anipulation  |                                                 |
\*---------------------------------------------------------------------------*/
FoamFile
{
    version     2.0;
    format      ascii;
    class       volVectorField;
    object      U;
}
// * * * * * * * * * * * * * * * * * * * * * * * * * * * * * * * * * * * * * //

dimensions      [0 1 -1 0 0 0 0];

internalField   uniform (19.58 0 0);

boundaryField
{
    combustorInlet
    {
        type            decayingTurbulenceInflowGenerator;
        direction       1;
        LField          uniform 0.00275;
        RField          uniform (0.066922 0 0 0.063295 0 0.062786);
        refField        nonuniform List<vector>
        6144
        (
            (18.65384615 2.923606638 8.341462058)
            (18.65384615 2.649114681 8.43266001)
            (18.65384615 2.371776338 8.514820513)
            (18.65384615 2.091896158 8.587861187)
            (18.65384615 1.809777422 8.651706462)
            (18.65384615 1.52572223 8.706287971)
            (18.65384615 1.240034755 8.751547269)
            (18.65384615 0.953020918 8.787435889)
            (18.65384615 0.6649880614 8.813915402)
            (18.65384615 0.3762446176 8.830957451)
            (18.65384615 0.0870997804 8.83854379)
            (18.65384615 -0.2021368267 8.836666293)
            (18.65384615 -0.491155482 8.825326971)
            (18.65384615 -0.779646697 8.804537967)
            (18.65384615 -1.067301548 8.774321541)
            (18.65384615 -1.353812007 8.734710052)
            (18.65384615 -1.638871272 8.685745914)
            (18.65384615 -1.922174093 8.627481562)
            (18.65384615 -2.203417104 8.559979384)
            (18.65384615 -2.482299141 8.483311665)
            (18.65384615 -2.758521572 8.397560503)
            (18.65384615 -3.03178861 8.302817721)
            (18.65384615 -3.301811213 8.199182126)
            (18.65384615 -3.568309788 8.086761845)
            (18.65384615 -3.830988961 7.965684348)
            (18.65384615 -4.08955514 7.836077836)
            (18.65384615 -4.343724891 7.698069532)
            (18.65384615 -4.59324319 7.551815159)
            (18.65384615 -4.837844887 7.39747555)
            (18.65384615 -5.077268058 7.235215976)
            (18.65384615 -5.311256321 7.065210188)
            (18.65384615 -5.539559116 6.887640232)
            (18.65384615 -5.761931971 6.702696255)
            (18.65384615 -5.978136763 6.5105763)
            (18.65384615 -6.187941975 6.311486093)
            (18.65384615 -6.391122942 6.105638826)
            (18.65384615 -6.587462093 5.893254924)
            (18.65384615 -6.776749183 5.674561813)
            (18.65384615 -6.958781518 5.449793676)
            (18.65384615 -7.133364175 5.219191201)
            (18.65384615 -7.300310205 4.983001321)
            (18.65384615 -7.459440838 4.741476955)
            (18.65384615 -7.610585673 4.494876734)
            (18.65384615 -7.753582861 4.243464722)
            (18.65384615 -7.888279277 3.987510139)
            (18.65384615 -8.014530684 3.727287066)
            (18.65384615 -8.132199837 3.463069917)
            (18.65384615 -8.241156427 3.19513272)
            (18.85929811 3.469439398 8.556553821)
            (18.9442069 3.372319771 8.627528351)
            (19.01224123 3.235245924 8.69378625)
            (19.06332825 3.058364639 8.755256565)
            (19.09741325 2.841865325 8.811873474)
            (19.11445974 2.585979815 8.86357635)
            (19.11444946 2.290982117 8.910309828)
            (19.09739309 1.955485334 8.975876616)
            (19.06330984 1.579697653 9.062322706)
            (19.01221823 1.166893111 9.129329541)
            (18.94417295 0.7175137494 9.176825369)
            (18.85924687 0.2320407749 9.204759331)
            (18.85936158 -0.06901410133 9.232986505)
            (18.94429714 -0.1858034369 9.261433736)
            (19.01235548 -0.3377110593 9.270229225)
            (19.06346372 -0.524574302 9.259363555)
            (19.09756715 -0.7461930672 9.22884836)
            (19.11462924 -1.00233004 9.178716317)
            (19.11463172 -1.292710942 9.109021109)
            (19.09757249 -1.627809728 9.041299128)
            (19.06346966 -2.008120499 8.977320213)
            (19.01236325 -2.415181676 8.881225077)
            (18.94430799 -2.848557368 8.753116621)
            (18.85937674 -3.307783506 8.593132027)
            (18.85937104 -3.596949499 8.503853024)
            (18.94425218 -3.715820093 8.485336231)
            (19.01225949 -3.859608425 8.435232152)
            (19.06332014 -4.028160521 8.353594442)
            (19.09737947 -4.221295892 8.240510519)
            (19.114401 -4.438807724 8.096101477)
            (19.11436651 -4.6804631 7.920521952)
            (19.0972894 -4.963962732 7.729512061)
            (19.06318935 -5.290842658 7.524869366)
            (19.01208005 -5.630144386 7.280307461)
            (18.94401624 -5.981504584 6.996088227)
            (18.8590708 -6.344547007 6.672516015)
            (18.85902885 -6.615577596 6.491897352)
            (18.94399106 -6.79420391 6.454605689)
            (19.01206988 -6.983643995 6.3785377)
            (19.06319242 -7.183694995 6.263774839)
            (19.09730394 -7.39414269 6.110439997)
            (19.11437582 -7.576378933 5.906001313)
            (19.11438931 -7.732433792 5.651413746)
            (19.09733975 -7.884726312 5.354420845)
            (19.06324539 -8.033093414 5.015340635)
            (19.01214275 -8.177376222 4.634536214)
            (18.94408655 -8.317420236 4.212415356)
            (18.85914966 -8.453075491 3.749430078)
            (19.35279945 4.647307116 8.693006445)
            (19.44038171 4.547129539 8.76621571)
            (19.51055819 4.405739726 8.834559833)
            (19.56329483 4.216734048 8.989788853)
            (19.59850217 3.985579177 9.157994252)
            (19.61612803 3.714831167 9.306657949)
            (19.61615355 3.404779942 9.435620752)
            (19.5985787 3.055757511 9.544744564)
            (19.56342229 2.668137618 9.633912532)
            (19.51072198 2.242335335 9.703029173)
            (19.4405342 1.778806622 9.752020476)
            (19.3529341 1.278047837 9.780833978)
            (19.35294312 0.9672776618 9.809928579)
            (19.44055299 0.8468110471 9.839271512)
            (19.51075424 0.6901203961 9.84834394)
            (19.56346368 0.455996919 9.9194748)
            (19.59863131 0.1779809115 9.986342232)
            (19.6162223 -0.1291264345 10.02001296)
            (19.6162178 -0.4649962607 10.02045092)
            (19.59861783 -0.8292689094 9.987655652)
            (19.56344122 -1.221554308 9.92166227)
            (19.51072565 -1.641432388 9.822541441)
            (19.44052757 -2.088453533 9.690399307)
            (19.35292214 -2.562139062 9.525377369)
            (19.35285471 -2.860528119 9.433225316)
            (19.44040845 -2.983141524 9.414125494)
            (19.51055707 -3.131457236 9.362443817)
            (19.56327728 -3.374868657 9.338464708)
            (19.59847104 -3.657321569 9.293899137)
            (19.61608237 -3.9539455 9.207520033)
            (19.6160924 -4.264422816 9.079419894)
            (19.59850113 -4.58842105 8.909735893)
            (19.56332739 -4.925593258 8.69864973)
            (19.51060884 -5.275578386 8.446387444)
            (19.44040195 -5.638001662 8.153219161)
            (19.35278188 -6.012474994 7.819458815)
            (19.35279088 -6.291986265 7.633246652)
            (19.44042824 -6.476236884 7.594780808)
            (19.51065063 -6.671641761 7.516317709)
            (19.56338283 -6.877991653 7.397941375)
            (19.5985684 -7.095065595 7.239778567)
            (19.61616965 -7.322631137 7.04199865)
            (19.61616774 -7.560444598 6.80481341)
            (19.59856265 -7.808251322 6.528476832)
            (19.56337326 -8.065785949 6.213284825)
            (19.51064357 -8.302013313 5.849400473)
            (19.44044452 -8.446466812 5.413988536)
            (19.35283327 -8.586393368 4.936425505)
            (19.80330095 5.745994498 8.875844783)
            (19.79303656 5.458696323 9.045318251)
            (19.78481122 5.164299908 9.207805722)
            (19.77863375 4.863120502 9.363133202)
            (19.77451076 4.555480614 9.511134361)
            (19.77244666 4.241709673 9.651650717)
            (19.77244368 3.922143673 9.7845318)
            (19.7745018 3.597124813 9.909635318)
            (19.77861882 3.267001131 10.02682731)
            (19.78479035 2.932126132 10.13598228)
            (19.79300976 2.592858409 10.23698334)
            (19.80326826 2.249561258 10.32972234)
            (19.80327903 1.912238416 10.39920654)
            (19.79301875 1.581932354 10.44581687)
            (19.78479741 1.247741529 10.48325711)
            (19.77862382 0.9100238007 10.51148717)
            (19.7745046 0.5691408065 10.5304768)
            (19.77244415 0.2254575722 10.54020568)
            (19.77244468 -0.1206578776 10.5406634)
            (19.77450618 -0.4688349138 10.53184945)
            (19.77862645 -0.8187006998 10.51377328)
            (19.78480109 -1.16988059 10.48645425)
            (19.79302347 -1.521998533 10.4499216)
            (19.80328479 -1.874677472 10.40421446)
            (19.80329463 -2.212921679 10.33932191)
            (19.79302897 -2.535896497 10.25601815)
            (19.78480299 -2.85896005 10.16274847)
            (19.77862549 -3.181766392 10.05961275)
            (19.77450308 -3.503969854 9.946721428)
            (19.77244019 -3.825225413 9.824195395)
            (19.77243901 -4.14518906 9.692165852)
            (19.77449956 -4.46351817 9.550774181)
            (19.77861962 -4.779871869 9.400171787)
            (19.78479478 -5.093911397 9.240519939)
            (19.79301843 -5.405300472 9.071989596)
            (19.80328177 -5.713705651 8.894761224)
            (19.80327619 -6.001750817 8.702845445)
            (19.7930137 -6.269144155 8.496453796)
            (19.78479053 -6.532628068 8.281980233)
            (19.77861549 -6.79192041 8.059654421)
            (19.7744952 -7.046743526 7.829714432)
            (19.77243406 -7.296824544 7.592406492)
            (19.77243428 -7.541895671 7.347984715)
            (19.77449587 -7.781694478 7.096710835)
            (19.77861661 -8.015964184 6.838853922)
            (19.7847921 -8.244453926 6.574690095)
            (19.79301571 -8.466919032 6.304502228)
            (19.80327865 -8.68312128 6.028579645)
            (19.74719379 5.920208718 9.056500307)
            (19.73662534 5.62439395 9.230992223)
            (19.7281566 5.322426762 9.398576841)
            (19.72179662 5.014630508 9.559074707)
            (19.71755223 4.701334785 9.712313956)
            (19.71542795 4.382875077 9.858130495)
            (19.71542608 4.059592399 9.996368181)
            (19.7175466 3.73183293 10.12687899)
            (19.72178694 3.398432975 10.24914892)
            (19.72814127 3.05363852 10.36153721)
            (19.73660415 2.704321223 10.46553006)
            (19.74716652 2.350855141 10.56101612)
            (19.74716667 2.003888764 10.63279318)
            (19.73660246 1.663795368 10.68078183)
            (19.72813814 1.320667082 10.72003367)
            (19.72178278 0.9748713343 10.75050666)
            (19.71754318 0.6267784134 10.77216818)
            (19.71542388 0.2767610654 10.78499503)
            (19.71542716 -0.07480590223 10.78897348)
            (19.71755299 -0.4275460229 10.78409926)
            (19.7217984 -0.7823496831 10.76945121)
            (19.72815593 -1.143932003 10.74132294)
            (19.73662187 -1.506480161 10.70370815)
            (19.74718715 -1.869605933 10.65664711)
            (19.74718603 -2.21762939 10.59019295)
            (19.73661629 -2.550175173 10.50441507)
            (19.7281463 -2.882181441 10.40940468)
            (19.72178513 -3.213292672 10.30526349)
            (19.71753958 -3.543154305 10.19210304)
            (19.71541421 -3.871413116 10.07004449)
            (19.71541128 -4.197717597 9.939218543)
            (19.71753082 -4.521718332 9.799765301)
            (19.72177098 -4.843886915 9.650499527)
            (19.72812905 -5.167228723 9.486118573)
            (19.7365963 -5.487841569 9.312596131)
            (19.74716365 -5.805382132 9.130118012)
            (19.74716796 -6.101973529 8.932522478)
            (19.73660148 -6.377287423 8.720017225)
            (19.72813473 -6.64857609 8.499190662)
            (19.72177678 -6.915549027 8.270279256)
            (19.71753124 -7.176911978 8.04018995)
            (19.71540566 -7.433333791 7.80290141)
            (19.71540306 -7.684773521 7.557124194)
            (19.71752345 -7.93096192 7.303121485)
            (19.72176456 -8.171635364 7.041165277)
            (19.72812183 -8.406536133 6.771536078)
            (19.73658847 -8.63541269 6.494522614)
            (19.74715542 -8.858019949 6.210421519)
            (19.69108631 6.094012964 9.237055086)
            (19.68021382 5.789687811 9.416567012)
            (19.64824787 5.472950203 9.566324016)
            (19.62265261 5.151314861 9.712882398)
            (19.60557134 4.825679711 9.858146091)
            (19.59702236 4.496393449 10.00195954)
            (19.5970148 4.163808684 10.14416876)
            (19.60554869 3.828281556 10.28462145)
            (19.62261489 3.490171355 10.42316722)
            (19.64819512 3.14984014 10.55965771)
            (19.68019651 2.807112024 10.69193499)
            (19.69106456 2.452149425 10.79231082)
            (19.6910539 2.095209848 10.86613995)
            (19.68018577 1.745332203 10.9155092)
            (19.64817794 1.395403742 10.93256181)
            (19.62261921 1.042166964 10.94486772)
            (19.60556922 0.6857322291 10.95444851)
            (19.59704625 0.3264812175 10.96129392)
            (19.5970594 -0.03520137633 10.96539662)
            (19.60560867 -0.3989282535 10.96675222)
            (19.62268491 -0.7643099261 10.96535928)
            (19.64826982 -1.130955134 10.96121927)
            (19.68021594 -1.498191799 10.95221396)
            (19.69108928 -1.864534373 10.90908075)
            (19.69107732 -2.222557162 10.84070621)
            (19.6802035 -2.564670054 10.75246057)
            (19.64821386 -2.885369101 10.64408179)
            (19.62262308 -3.208937521 10.52824198)
            (19.60554339 -3.53689716 10.40601775)
            (19.59699309 -3.868896832 10.27753999)
            (19.59698133 -4.204581021 10.14294628)
            (19.60550812 -4.54359027 10.00238074)
            (19.62256435 -4.885561558 9.855993894)
            (19.64813173 -5.230128694 9.703942498)
            (19.68017654 -5.575124711 9.545472652)
            (19.69104531 -5.897058977 9.365475735)
            (19.69105952 -6.202196639 9.162200424)
            (19.68018478 -6.484087228 8.952459976)
            (19.64815784 -6.738812156 8.72993564)
            (19.6225819 -6.993449462 8.499050467)
            (19.60551256 -7.249704518 8.260585683)
            (19.5969681 -7.507302918 8.014796643)
            (19.59695767 -7.76596882 7.761946543)
            (19.60548127 -8.025425237 7.502306143)
            (19.62252978 -8.285394337 7.23615347)
            (19.64808494 -8.545597739 6.963773529)
            (19.68016082 -8.803846687 6.684942335)
            (19.69103177 -9.0328582 6.39266785)
            (19.50537483 6.233914032 9.291376805)
            (19.4616535 5.912564883 9.444210229)
            (19.42661857 5.58640076 9.596036665)
            (19.40030754 5.255770926 9.746693534)
            (19.3827486 4.921029429 9.896019508)
            (19.37398085 4.597381148 10.04431187)
            (19.37399705 4.27301557 10.19103745)
            (19.38278859 3.941992335 10.33584552)
            (19.40034605 3.604665911 10.478581)
            (19.42665062 3.261397516 10.61909106)
            (19.46167415 2.912554729 10.75722523)
            (19.50537913 2.558511102 10.8928356)
            (19.50534968 2.203613876 10.96973796)
            (19.46167655 1.84823621 10.98794702)
            (19.42668452 1.488797429 11.00338484)
            (19.40041104 1.125682428 11.01603488)
            (19.38288425 0.7592800405 11.0258836)
            (19.37409539 0.403504379 11.03902129)
            (19.37407628 0.04772435358 11.05046538)
            (19.38283877 -0.3134782197 11.05758711)
            (19.40037347 -0.6797165562 11.06037886)
            (19.42666161 -1.050598479 11.05883763)
            (19.46167503 -1.425726837 11.05296508)
            (19.50537624 -1.804699935 11.04276749)
            (19.5053425 -2.155879104 10.9845486)
            (19.46163106 -2.478922408 10.87841849)
            (19.42660617 -2.804681901 10.76814919)
            (19.40030536 -3.132808754 10.65385878)
            (19.38275677 -3.462951599 10.53566963)
            (19.37397921 -3.794756911 10.41370832)
            (19.37398207 -4.127869385 10.28810544)
            (19.38275998 -4.466235833 10.15440566)
            (19.40029317 -4.817770306 10.00392513)
            (19.42657554 -5.171973219 9.847621632)
            (19.46157894 -5.528465284 9.685662552)
            (19.50526589 -5.88686476 9.518221316)
            (19.50530788 -6.195200671 9.323561999)
            (19.46162032 -6.453059421 9.101857609)
            (19.42661762 -6.711836843 8.875296784)
            (19.40033726 -6.971255832 8.644122132)
            (19.38280739 -7.231038594 8.408581201)
            (19.37404677 -7.49090695 8.168926213)
            (19.37406479 -7.750582624 7.925413798)
            (19.38285104 -8.012036381 7.672375818)
            (19.40037631 -8.279275485 7.398780219)
            (19.42664612 -8.546755443 7.118783206)
            (19.46163234 -8.81418983 6.832684608)
            (19.5052975 -9.081292272 6.540790786)
            (19.28588729 6.364980055 9.312801525)
            (19.24097656 6.034888858 9.469792661)
            (19.20503024 5.730349829 9.626688577)
            (19.1780432 5.419785995 9.782338839)
            (19.16751412 5.103498379 9.939366394)
            (19.16866499 4.78044014 10.09577195)
            (19.16866286 4.447245022 10.24648191)
            (19.16750773 4.10426982 10.39133489)
            (19.17812633 3.75562112 10.53511774)
            (19.20514651 3.40301438 10.67945026)
            (19.24112282 3.044681603 10.82134226)
            (19.28601676 2.681006499 10.9606418)
            (19.28599554 2.316453891 11.03964589)
            (19.24113432 1.951408458 11.05835032)
            (19.20513367 1.610017138 11.08676272)
            (19.17809132 1.263590699 11.1117435)
            (19.16751365 0.9101795933 11.13409922)
            (19.16866919 0.5503273568 11.15268712)
            (19.16867169 0.1848678474 11.16444776)
            (19.16752118 -0.1858075917 11.16936855)
            (19.1779933 -0.5617467028 11.17045768)
            (19.20499658 -0.9427181738 11.16887452)
            (19.24096252 -1.328051602 11.16284221)
            (19.28585259 -1.717334363 11.1523672)
            (19.28585035 -2.078086414 11.09259157)
            (19.24094977 -2.409917855 10.98357427)
            (19.20497206 -2.744539377 10.87030518)
            (19.17795575 -3.081592661 10.75290559)
            (19.16752739 -3.4198023 10.63501774)
            (19.16867933 -3.759410215 10.51444493)
            (19.16867896 -4.101585149 10.38542359)
            (19.16752626 -4.445960692 10.24809188)
            (19.17797043 -4.790633682 10.1084972)
            (19.20499259 -5.13463414 9.969099715)
            (19.24097426 -5.480007698 9.824936201)
            (19.28584967 -5.848157147 9.652939858)
            (19.28585831 -6.164847056 9.45297053)
            (19.24098226 -6.429720649 9.225234847)
            (19.20502734 -6.695537906 8.992510615)
            (19.17803205 -6.962014182 8.75504704)
            (19.16751561 -7.229353752 8.516653585)
            (19.1686659 -7.49695505 8.275296174)
            (19.16866354 -7.76369363 8.025149289)
            (19.16750851 -8.029283863 7.766480791)
            (19.17812449 -8.294286053 7.505701131)
            (19.20515663 -8.558720815 7.245299706)
            (19.24114454 -8.822622878 6.979911721)
            (19.28599758 -9.09699163 6.680077159)
            (19.17948011 6.55745325 9.36537577)
            (19.18537008 6.269520873 9.54663238)
            (19.19008952 5.972200402 9.724313196)
            (19.19363339 5.665810216 9.898227952)
            (19.19599788 5.350678403 10.06819042)
            (19.19718047 5.027142416 10.23401859)
            (19.1971789 4.68912767 10.39133765)
            (19.19599318 4.337069174 10.54002689)
            (19.19362521 3.975348573 10.68254482)
            (19.19007751 3.604353206 10.81873882)
            (19.18535388 3.224480345 10.94846306)
            (19.17945939 2.836136766 11.07157862)
            (19.17946407 2.470552505 11.15657908)
            (19.18535911 2.128080602 11.20341255)
            (19.19008325 1.778311928 11.24336445)
            (19.19363143 1.421621025 11.27639199)
            (19.19599986 1.058389846 11.3024598)
            (19.19718599 0.6890073474 11.32153998)
            (19.19718744 0.316572548 11.33756781)
            (19.19600418 -0.05849050459 11.35056305)
            (19.19363928 -0.4400838978 11.3542146)
            (19.19009528 -0.8277990119 11.34851854)
            (19.18537596 -1.221220672 11.33348098)
            (19.17948639 -1.619927592 11.30911801)
            (19.17948237 -1.986677312 11.25299435)
            (19.18537089 -2.321040603 11.16514783)
            (19.19008921 -2.659511154 11.06815599)
            (19.19363229 -3.001726524 10.96212268)
            (19.19599631 -3.347320259 10.84716146)
            (19.19717877 -3.695922289 10.72339542)
            (19.19717896 -4.046181622 10.5956349)
            (19.1959969 -4.39770402 10.46410844)
            (19.19363292 -4.751682347 10.32144864)
            (19.19008956 -5.107737553 10.16780829)
            (19.18537062 -5.465488367 10.00335189)
            (19.17948114 -5.824551699 9.828255553)
            (19.17948231 -6.141884724 9.636048639)
            (19.18537055 -6.417169203 9.426940332)
            (19.19008823 -6.692747225 9.207809342)
            (19.19363032 -6.968323696 8.978890317)
            (19.19599301 -7.243603521 8.740428391)
            (19.19717377 -7.518291924 8.492678914)
            (19.19717213 -7.792976727 8.240592159)
            (19.19598811 -8.067385635 7.984554104)
            (19.1936217 -8.339802809 7.717285325)
            (19.19007544 -8.609936539 7.439072021)
            (19.18535314 -8.877497557 7.15021211)
            (19.17945983 -9.142199353 6.851014909)
            (19.20753092 6.791080038 9.446854908)
            (19.21357285 6.495718834 9.632788048)
            (19.21841406 6.190727317 9.815053135)
            (19.22204936 5.87643208 9.993454995)
            (19.22447486 5.553169678 10.16780259)
            (19.22568796 5.221286269 10.33790923)
            (19.22568736 4.881137242 10.50359275)
            (19.22447306 4.533086836 10.66467574)
            (19.22204637 4.177507753 10.82098571)
            (19.21840988 3.814780756 10.97235527)
            (19.21356491 3.428574909 11.10769338)
            (19.20751834 3.030211833 11.2339854)
            (19.20752372 2.655197823 11.32117633)
            (19.21357086 2.30388994 11.36921813)
            (19.2184159 1.947440637 11.41362999)
            (19.22205061 1.593537634 11.4650545)
            (19.2244758 1.231335256 11.50701272)
            (19.22568886 0.8612213601 11.53945971)
            (19.22568849 0.483592273 11.56236073)
            (19.2244747 0.09885236951 11.57569126)
            (19.22204879 -0.2925863613 11.57943702)
            (19.21841335 -0.690304757 11.573594)
            (19.21357227 -1.093876931 11.55816846)
            (19.20753075 -1.502870728 11.53317691)
            (19.20752531 -1.879089663 11.47560941)
            (19.21356576 -2.222079726 11.38549639)
            (19.21840631 -2.568437549 11.29004725)
            (19.22204337 -2.915124113 11.20212984)
            (19.22447061 -3.26585419 11.10228881)
            (19.22568546 -3.620252208 10.99063108)
            (19.2256866 -3.97793867 10.8672762)
            (19.22447404 -4.338530556 10.73235627)
            (19.22204907 -4.701641735 10.58601577)
            (19.2184143 -5.066883379 10.4284114)
            (19.2135736 -5.433864377 10.25971193)
            (19.20753217 -5.802191757 10.080098)
            (19.2075338 -6.12770953 9.882931623)
            (19.21357396 -6.410096513 9.668428198)
            (19.21841406 -6.693553932 9.447730095)
            (19.22205105 -6.980183964 9.233852694)
            (19.22447775 -7.265986465 9.007406789)
            (19.22569157 -7.55065539 8.768634864)
            (19.22569119 -7.833885908 8.517792603)
            (19.22447661 -8.115374731 8.255148612)
            (19.22204915 -8.394820431 7.980984139)
            (19.2184114 -8.671923772 7.695592766)
            (19.21356726 -8.946388024 7.399280096)
            (19.2075219 -9.217919285 7.092363428)
            (19.22136008 6.967243297 9.52469971)
            (19.20925026 6.590495435 9.71063163)
            (19.19954705 6.218572817 9.89373286)
            (19.19226084 5.851873705 10.07380733)
            (19.18739943 5.49079077 10.25066221)
            (19.18496802 5.135710669 10.42410813)
            (19.18496922 4.787013631 10.59395934)
            (19.18740302 4.445073048 10.76003398)
            (19.19226655 4.113867536 10.91838157)
            (19.19955477 3.79138119 11.07130823)
            (19.20926028 3.47291291 11.22392038)
            (19.22137268 3.158803719 11.3760546)
            (19.22136328 2.791928613 11.46592434)
            (19.2092535 2.372765209 11.49352426)
            (19.19955023 1.959137388 11.52035587)
            (19.19226385 1.551488073 11.54639043)
            (19.18740217 1.150253785 11.57160007)
            (19.1849704 0.755864176 11.59595778)
            (19.18497113 0.3687415684 11.61943748)
            (19.18740437 -0.01069949743 11.64201404)
            (19.19226707 -0.3773027255 11.66156842)
            (19.19955432 -0.7337682794 11.67944367)
            (19.20925892 -1.086392253 11.69856568)
            (19.22137048 -1.434797048 11.71891398)
            (19.22138048 -1.796174961 11.6613901)
            (19.20926546 -2.170167448 11.52592767)
            (19.19955771 -2.53877984 11.39187812)
            (19.19226763 -2.901617417 11.25938499)
            (19.1874025 -3.265589162 11.12874845)
            (19.18496731 -3.633723834 11.00018255)
            (19.18496502 -4.000411269 10.87371182)
            (19.18739563 -4.365258809 10.74947168)
            (19.19225655 -4.727875766 10.62759518)
            (19.19954257 -5.08787384 10.50821281)
            (19.20924588 -5.444867537 10.39145243)
            (19.22135609 -5.798474578 10.27743905)
            (19.22135058 -6.122272642 10.08617481)
            (19.20924 -6.415934118 9.817923327)
            (19.19953634 -6.705169102 9.553033026)
            (19.19224998 -6.989667875 9.291787555)
            (19.18738835 -7.275899651 9.031834866)
            (19.18495648 -7.566791617 8.772196963)
            (19.18495724 -7.857146168 8.515050234)
            (19.18739063 -8.146652386 8.260670039)
            (19.19225405 -8.435000259 8.009328774)
            (19.19954229 -8.721881018 7.761295582)
            (19.20924754 -9.006987463 7.516836063)
            (19.22135942 -9.290014295 7.27621199)
            (19.1665171 6.865930898 9.584994606)
            (19.15411017 6.479939639 9.775488311)
            (19.1441689 6.098892007 9.963081876)
            (19.13670331 5.730943927 10.139483)
            (19.13172071 5.385344032 10.29525557)
            (19.12922804 5.042055347 10.45154465)
            (19.12922796 4.701445475 10.60818287)
            (19.13172048 4.36387915 10.7650025)
            (19.13670292 4.029717846 10.92183563)
            (19.14416995 3.699319391 11.0785143)
            (19.15411358 3.373037585 11.23487075)
            (19.16652316 3.051221817 11.39073753)
            (19.16652263 2.67538157 11.48285084)
            (19.15411575 2.245934114 11.51112793)
            (19.14417441 1.822158055 11.53861784)
            (19.13670832 1.414707379 11.56079265)
            (19.13172441 1.035752599 11.57245356)
            (19.12923049 0.6587445513 11.58547582)
            (19.12922922 0.2840869469 11.59984546)
            (19.13172061 -0.08781902202 11.61554711)
            (19.13670199 -0.4565751092 11.63256395)
            (19.14416803 -0.8217864413 11.65087775)
            (19.15411072 -1.183061941 11.67046892)
            (19.16651944 -1.540014745 11.69131646)
            (19.16652246 -1.910267724 11.6323418)
            (19.1541102 -2.293436007 11.49355584)
            (19.14416427 -2.671092196 11.35621742)
            (19.13669533 -3.042831887 11.22047361)
            (19.13171136 -3.408257013 11.08646976)
            (19.12921771 -3.766976266 10.95434938)
            (19.12921704 -4.118605521 10.82425394)
            (19.13170937 -4.462768244 10.69632274)
            (19.13669201 -4.799095898 10.57069279)
            (19.14415757 -5.156710038 10.44813811)
            (19.15409895 -5.52246247 10.32851304)
            (19.16650628 -5.884745157 10.21170238)
            (19.16650055 -6.216487363 10.01574507)
            (19.15409284 -6.517353737 9.740912117)
            (19.1441511 -6.813685017 9.46952281)
            (19.13668597 -7.105163885 9.201867757)
            (19.13170545 -7.391478216 8.938233571)
            (19.12921487 -7.67232142 8.678902557)
            (19.1292169 -7.947392761 8.424152413)
            (19.13171154 -8.216397687 8.174255933)