/*--------------------------------*- C++ -*----------------------------------*\
| =========                 |                                                 |
| \\      /  F ield         | OpenFOAM: The Open Source CFD Toolbox           |
|  \\    /   O peration     | Version:  5                                     |
|   \\  /    A nd           | Web:      www.OpenFOAM.org                      |
|    \\/     M anipulation  |                                                 |
\*---------------------------------------------------------------------------*/
FoamFile
{
    version     2.0;
    format      ascii;
    class       volVectorField;
    object      U;
}   
// * * * * * * * * * * * * * * * * * * * * * * * * * * * * * * * * * * * * * //

dimensions      [0 1 -1 0 0 0 0];

internalField   uniform (19.58 0 0);

boundaryField
{
    combustorInlet
    {
        type            decayingTurbulenceInflowGenerator;
        direction       1;
        LField          uniform 0.00275;
        RField          uniform (0.066922 0 0 0.063295 0 0.062786);
        refField        nonuniform List<vector>
        1600
        (
            (18.92893472 3.60554667 8.580577139)
            (19.02715828 3.478919225 8.664943658)
            (19.10095568 3.29459559 8.742460801)
            (19.15021311 3.052859983 8.813009044)
            (19.17485463 2.754085142 8.876479606)
            (19.17485029 2.397449429 8.950737607)
            (19.15021701 1.980800303 9.07352441)
            (19.10095862 1.510230514 9.168302511)
            (19.0271511 0.9864656665 9.234925779)
            (18.92890823 0.4103133381 9.273291472)
            (18.92901081 0.04758656821 9.307286893)
            (19.02726595 -0.1015717181 9.336821981)
            (19.10109093 -0.3014282248 9.337943434)
            (19.15037192 -0.5516747933 9.310649519)
            (19.17503291 -0.8519255656 9.254982317)
            (19.17503432 -1.209851874 9.187214788)
            (19.15037285 -1.641839488 9.14115707)
            (19.10109319 -2.112910955 9.048601181)
            (19.02727131 -2.622339916 8.90968984)
            (18.92902106 -3.169340866 8.72463724)
            (18.92900269 -3.517691508 8.61708042)
            (19.02719309 -3.666899152 8.587161937)
            (19.10095825 -3.852062359 8.511602543)
            (19.15018442 -4.072895622 8.390518746)
            (19.17479571 -4.329058436 8.224097243)
            (19.17476421 -4.633662971 8.024291237)
            (19.15011154 -5.015146611 7.816441029)
            (19.10083249 -5.41494205 7.550659827)
            (19.02700305 -5.832432829 7.227357452)
            (18.92873706 -6.266975206 6.84703242)
            (18.9287031 -6.593441041 6.629489351)
            (19.02698887 -6.811237918 6.575220505)
            (19.10083555 -7.044579754 6.464929947)
            (19.15012927 -7.293106744 6.298787767)
            (19.17479403 -7.556435683 6.077050123)
            (19.17480677 -7.761423666 5.775999403)
            (19.15016003 -7.943944647 5.408070563)
            (19.10088831 -8.120721939 4.979455655)
            (19.02706758 -8.291482961 4.490815575)
            (18.92881166 -8.455964414 3.942903763)
            (19.72808336 5.946243607 9.132178002)
            (19.71579231 5.586484857 9.34183608)
            (19.70655683 5.217925425 9.541377124)
            (19.70039117 4.841133601 9.73049346)
            (19.69730482 4.456690373 9.908893484)
            (19.69730254 4.065188521 10.07630211)
            (19.70038435 3.667231715 10.23246122)
            (19.70654549 3.263433575 10.37713001)
            (19.71577474 2.846194909 10.50805405)
            (19.72805848 2.419108693 10.62576024)
            (19.72805497 1.998928404 10.7126793)
            (19.7157691 1.586297955 10.76868305)
            (19.70653907 1.169416931 10.81197074)
            (19.70037912 0.7489281312 10.84247564)
            (19.69729876 0.3254799195 10.86015071)
            (19.69730272 -0.100274778 10.86496869)
            (19.700391 -0.5276794783 10.85692215)
            (19.70655885 -0.9560751546 10.8360235)
            (19.71579283 -1.391671318 10.79728621)
            (19.72808014 -1.831321715 10.74257776)
            (19.72807508 -2.252780679 10.66209751)
            (19.71578247 -2.655404148 10.55597333)
            (19.70654551 -3.057088491 10.43647535)
            (19.70037842 -3.457214338 10.3037878)
            (19.69729073 -3.855164724 10.15811529)
            (19.69728719 -4.25032604 9.99968243)
            (19.70036781 -4.642088974 9.828733518)
            (19.70652784 -5.029849458 9.64553214)
            (19.71576022 -5.417487392 9.443060103)
            (19.72804985 -5.802812623 9.224225955)
            (19.72805743 -6.161994063 8.984934959)
            (19.71576876 -6.494458223 8.725548956)
            (19.70653391 -6.82037863 8.457917992)
            (19.70036567 -7.138797365 8.185463151)
            (19.6972776 -7.450496336 7.900195213)
            (19.69727446 -7.754994927 7.60255404)
            (19.70035625 -8.05182362 7.292998573)
            (19.70651821 -8.340524732 6.972006127)
            (19.71575086 -8.620653103 6.640071648)
            (19.72803995 -8.891776796 6.297706952)
            (19.16727654 6.410551009 9.34018994)
            (19.17329185 6.067949966 9.554593183)
            (19.17832767 5.708966149 9.761892557)
            (19.18168833 5.33395408 9.961505415)
            (19.18336866 4.943492002 10.15312397)
            (19.18336607 4.538181978 10.33645276)
            (19.18168056 4.118648968 10.5112091)
            (19.17831474 3.685539859 10.67712353)
            (19.17327378 3.239522477 10.83394023)
            (19.16745783 2.781542705 10.98175859)
            (19.16742398 2.348014238 11.08235377)
            (19.17327881 1.940433224 11.13602576)
            (19.17832036 1.522604883 11.18009406)
            (19.18168674 1.095203203 11.21428923)
            (19.18337276 0.6588872082 11.23855855)
            (19.18337581 0.2143296665 11.2528646)
            (19.18169589 -0.2377839473 11.25718532)
            (19.1783356 -0.6967565069 11.25151404)
            (19.17330011 -1.161880309 11.23585952)
            (19.16721023 -1.632459507 11.21039049)
            (19.16722329 -2.071300151 11.13769053)
            (19.17329694 -2.468620444 11.03112065)
            (19.17833193 -2.871551846 10.91187923)
            (19.18169276 -3.279548622 10.77985959)
            (19.18337424 -3.691981673 10.63526529)
            (19.18337378 -4.108215055 10.47831929)
            (19.18169139 -4.527606966 10.30926358)
            (19.17832965 -4.949510737 10.12835883)
            (19.17329375 -5.373275819 9.935883993)
            (19.16725531 -5.798168896 9.732443109)
            (19.16725587 -6.175927041 9.497136824)
            (19.17329232 -6.502206961 9.246620541)
            (19.17832639 -6.828821884 8.982265605)
            (19.1816858 -7.155224754 8.704164229)
            (19.18336536 -7.480912283 8.41274522)
            (19.18336248 -7.805382285 8.108457927)
            (19.18167717 -8.128134449 7.79177154)
            (19.17831203 -8.448671116 7.463174365)
            (19.17327224 -8.766498041 7.123173075)
            (19.16745747 -9.081183459 6.772715255)
            (19.18074316 6.85614422 9.586922559)
            (19.16654291 6.397251594 9.813284659)
            (19.15587388 5.945605014 10.03541244)
            (19.14875246 5.502766934 10.25205895)
            (19.14518778 5.093042829 10.43822009)
            (19.14518768 4.687097446 10.62490453)
            (19.14875218 4.285556721 10.81182442)
            (19.15587576 3.889039802 10.99869152)
            (19.16654746 3.498158088 11.18521773)
            (19.1807508 3.11351429 11.37111541)
            (19.18074804 2.665572225 11.48088877)
            (19.16654781 2.155056736 11.51440516)
            (19.15587865 1.652847867 11.54678302)
            (19.14875693 1.160839791 11.57747857)
            (19.14519074 0.7110117531 11.59267552)
            (19.14518923 0.2644876276 11.60980154)
            (19.1487524 -0.1780440779 11.62883022)
            (19.15587474 -0.6159010106 11.64973221)
            (19.1665453 -1.048408027 11.67247529)
            (19.1807476 -1.474898234 11.6970244)
            (19.18075223 -1.916171584 11.62674293)
            (19.16654578 -2.371563919 11.46166608)
            (19.15587154 -2.818898683 11.29872279)
            (19.14874595 -3.257486117 11.13816429)
            (19.14518001 -3.686649952 10.98023817)
            (19.14517922 -4.105728448 10.82518792)
            (19.14874357 -4.514075417 10.67325263)
            (19.15586455 -4.954365709 10.52560592)
            (19.16653356 -5.391800134 10.38173531)
            (19.18073423 -5.824439794 10.24183523)
            (19.18072853 -6.219818541 10.00829574)
            (19.16652741 -6.577346397 9.68153747)
            (19.15585798 -6.928251471 9.359829402)
            (19.14873667 -7.27199269 9.04366759)
            (19.14517449 -7.608040033 8.73353953)
            (19.1451769 -7.935875338 8.429923419)
            (19.14874392 -8.254993106 8.13328741)
            (19.1558678 -8.605239492 7.828416607)
            (19.16653931 -8.954283096 7.52813274)
            (19.18074208 -9.300413442 7.233354281)
            (19.15124421 6.997629409 9.668314293)
            (19.15889637 6.615636144 9.876609481)
            (19.16464641 6.223864662 10.08442377)
            (19.17394584 5.816489438 10.28757705)
            (19.18163862 5.400192975 10.4893905)
            (19.18164757 4.982759067 10.69384016)
            (19.17397268 4.564831367 10.90061079)
            (19.16465757 4.139951869 11.10512002)
            (19.15891198 3.702658161 11.30338018)
            (19.15126032 3.224547064 11.49291441)
            (19.1512613 2.765146695 11.61027188)
            (19.15891396 2.332492742 11.65653197)
            (19.16466359 1.890992458 11.69860337)
            (19.17400205 1.436827125 11.73034379)
            (19.18167837 0.9749804475 11.75748986)
            (19.18167511 0.511077028 11.78663499)
            (19.17399228 0.04583217241 11.81773421)
            (19.16465952 -0.4249591919 11.84409087)
            (19.15890827 -0.9048385815 11.85990031)
            (19.15125692 -1.419137937 11.85203823)
            (19.1512624 -1.894417427 11.77627716)
            (19.15891401 -2.319376479 11.64281535)
            (19.16465958 -2.733319848 11.52681725)
            (19.17398089 -3.155406187 11.39162735)
            (19.18165653 -3.586035795 11.24452802)
            (19.18164924 -4.025761001 11.09393177)
            (19.17395903 -4.473903781 10.94007079)
            (19.16465048 -4.92855129 10.77495955)
            (19.15890129 -5.387960191 10.59183811)
            (19.15125011 -5.852526359 10.39842025)
            (19.15124767 -6.256722994 10.15492282)
            (19.15889661 -6.598268259 9.868934049)
            (19.16465001 -6.936326632 9.603387442)
            (19.17396129 -7.274573889 9.316993456)
            (19.18165098 -7.616138082 9.016291479)
            (19.18166246 -7.964763715 8.708881478)
            (19.1739957 -8.319913234 8.395237456)
            (19.16466434 -8.676798208 8.068757444)
            (19.15891664 -9.031170151 7.723765879)
            (19.15126589 -9.38636577 7.367282658)
            (19.44850075 7.284905853 9.531512826)
            (19.47363827 6.921000305 9.744256844)
            (19.49252452 6.541880499 9.957967956)
            (19.50513037 6.148131009 10.17231664)
            (19.51143639 5.740358966 10.38697237)
            (19.51143375 5.322791919 10.60344403)
            (19.50512352 4.900430411 10.82362514)
            (19.49251204 4.460189278 11.04015359)
            (19.47361877 4.002747345 11.25269551)
            (19.44847283 3.52880995 11.46092316)
            (19.44847805 3.082711995 11.59376914)
            (19.47362022 2.665121579 11.65106065)
            (19.49251006 2.233098706 11.70342288)
            (19.50511846 1.787309527 11.75077507)
            (19.51142597 1.328441413 11.79304422)
            (19.5114238 0.8598129209 11.83323526)
            (19.50511309 0.3853272697 11.8750261)
            (19.4925 -0.1042804456 11.90659808)
            (19.47360397 -0.6082552856 11.9279025)
            (19.44845414 -1.125820157 11.93890651)
            (19.44847168 -1.585730852 11.90035694)
            (19.47362144 -1.987357085 11.81235716)
            (19.49251758 -2.400446385 11.71423486)
            (19.50513099 -2.824361798 11.60614135)
            (19.5114422 -3.258449678 11.48824328)
            (19.51144463 -3.70675662 11.34606533)
            (19.50513728 -4.16709727 11.18447036)
            (19.49252905 -4.637525338 11.00755055)
            (19.47363939 -5.117315457 10.81557869)
            (19.44849741 -5.605727826 10.60885078)
            (19.44849771 -6.018957728 10.38780652)
            (19.47364385 -6.356358545 10.15278675)
            (19.49253735 -6.700471943 9.904032905)
            (19.50514908 -7.050767324 9.641928555)
            (19.51145959 -7.406704558 9.366877843)
            (19.51145701 -7.766499378 9.063954133)
            (19.505142 -8.129985686 8.738453983)
            (19.49252488 -8.496929055 8.394930508)
            (19.4736251 -8.866763687 8.033913399)
            (19.4484718 -9.238919323 7.655959314)
            (19.84909003 7.583611127 9.446797013)
            (19.91032237 7.13275435 9.65675618)
            (19.95632534 6.692083783 9.869278532)
            (19.98702798 6.262278911 10.08403638)
            (20.00238296 5.844002458 10.30069857)
            (20.0023666 5.43789938 10.51893104)
            (19.98697894 5.044595856 10.73839728)
            (19.95624368 4.664698333 10.9587589)
            (19.9102411 4.254060734 11.21622673)
            (19.84901907 3.844699602 11.48476025)
            (19.84902779 3.375630164 11.63454846)
            (19.9102583 2.847583503 11.66537505)
            (19.95626575 2.334322095 11.70055092)
            (19.98698483 1.875425081 11.72833645)
            (20.00236015 1.416271899 11.76535723)
            (20.002368 0.9575705276 11.81155618)
            (19.98700837 0.5000282514 11.86686206)
            (19.95630494 0.0443505679 11.93118958)
            (19.91030505 -0.4087599015 12.00443957)
            (19.84907964 -0.8586044933 12.08649908)
            (19.84909459 -1.333703622 12.04067753)
            (19.91032213 -1.833314104 11.86709521)
            (19.95632745 -2.320901958 11.70318928)
            (19.98705372 -2.755518598 11.55323758)
            (20.00243341 -3.193903645 11.41172259)
            (20.00244281 -3.635381143 11.27886252)
            (19.98708192 -4.079270365 11.15486222)
            (19.9563744 -4.524886866 11.03991291)
            (19.91036762 -4.971543536 10.93419181)
            (19.8491325 -5.418551664 10.83786195)
            (19.84915059 -5.839960213 10.61370688)
            (19.91039342 -6.235128799 10.26212332)
            (19.95640615 -6.622834817 9.924118403)
            (19.98710601 -6.966969249 9.619293089)
            (20.00246257 -7.317818004 9.320814232)
            (20.00245216 -7.674840099 9.029142063)
            (19.98707479 -8.037485032 8.744726322)
            (19.95635418 -8.405193629 8.468005556)
            (19.91033768 -8.777398912 8.199406449)
            (19.84909626 -9.153526967 7.93934316)
            (20.47268448 7.440358413 9.327762902)
            (20.50175622 7.051907793 9.523846742)
            (20.48080393 6.669743752 9.715806944)
            (20.46681707 6.277697257 9.918384394)
            (20.45981721 5.876372815 10.13126673)
            (20.45981514 5.466389241 10.35412571)
            (20.46681087 5.048378699 10.5866177)
            (20.4807936 4.622985729 10.82838421)
            (20.50174179 4.190866258 11.07905245)
            (20.47272077 3.761922917 11.32636146)
            (20.4727108 3.30442929 11.46502493)
            (20.5017525 2.870516513 11.4975306)
            (20.48080814 2.443972038 11.52863728)
            (20.46682803 2.004233074 11.56577053)
            (20.45983373 1.551977667 11.60887306)
            (20.45983602 1.087903161 11.65787844)
            (20.4668349 0.6127251266 11.71271109)
            (20.48081958 0.1271762527 11.77328646)
            (20.5017685 -0.3679947788 11.83951115)
            (20.47266668 -0.8589081161 11.90383244)
            (20.47267264 -1.334652098 11.85683776)
            (20.50176293 -1.738905833 11.73395419)
            (20.48081362 -2.127664339 11.62435662)
            (20.46682746 -2.536635205 11.50700337)
            (20.45982601 -2.965187826 11.38207539)
            (20.45982006 -3.412661406 11.24976531)
            (20.46680964 -3.878365973 11.11027714)
            (20.48078395 -4.361583445 10.96382597)
            (20.50172145 -4.861568734 10.81063761)
            (20.47279827 -5.348874058 10.66901549)
            (20.47279954 -5.761961411 10.45194467)
            (20.50171323 -6.100168592 10.15975184)
            (20.48076744 -6.423784839 9.880127412)
            (20.46678472 -6.760988611 9.595436549)
            (20.45978661 -7.111259968 9.306118227)
            (20.45978393 -7.474058815 9.012618554)
            (20.46677666 -7.848825743 8.715390085)
            (20.48075402 -8.234982888 8.414891125)
            (20.50169447 -8.631934824 8.111585022)
            (20.47285086 -9.016146325 7.818313159)
            (20.1757509 7.938717091 8.886288357)
            (20.09701282 7.637603625 9.076678959)
            (20.03785569 7.316608799 9.283777026)
            (19.99837073 6.976227562 9.50726323)
            (19.97861882 6.616984758 9.74679297)
            (19.97863042 6.239434315 10.00199691)
            (19.99840426 5.84101039 10.27093939)
            (20.0378921 5.377455041 10.53122361)
            (20.09704764 4.88638708 10.80052685)
            (20.17577969 4.368563701 11.07843386)
            (20.1757991 3.933753421 11.24788827)
            (20.09704237 3.582697149 11.30855338)
            (20.0378658 3.206891594 11.37704326)
            (19.99836064 2.806916225 11.45325232)
            (19.9785878 2.383387771 11.53706304)
            (19.97857778 1.936959284 11.62834619)
            (19.99833156 1.466025731 11.7243699)
            (20.03783294 0.9380904137 11.78745039)
            (20.0970093 0.3812678366 11.84833493)
            (20.17576939 -0.203583422 11.90692961)
            (20.17575659 -0.6701012443 11.89706326)
            (20.0970054 -1.017617364 11.81877427)
            (20.03783852 -1.391006038 11.73824141)
            (19.99834719 -1.789691526 11.65558885)
            (19.9785923 -2.213059086 11.57094404)
            (19.97860432 -2.660455915 11.48443748)
            (19.99838189 -3.132324446 11.39290401)
            (20.03787544 -3.644181613 11.24916126)
            (20.09703976 -4.181882902 11.09233741)
            (20.17578363 -4.744599214 10.92267427)
            (20.17580453 -5.171884332 10.7350361)
            (20.09705366 -5.463000118 10.52970954)
            (20.03788237 -5.777155651 10.31241123)
            (19.99838191 -6.113866528 10.08347621)
            (19.97861319 -6.472613563 9.843257488)
            (19.97860669 -6.852843596 9.592125468)
            (19.99836073 -7.253754068 9.326999566)
            (20.03782077 -7.671612623 8.998353545)
            (20.09694576 -8.108334757 8.647739864)
            (20.17564455 -8.563247074 8.275699148)
            (19.80769231 8.368327342 8.534453542)
            (19.80769231 7.974675975 8.800538825)
            (19.80769231 7.578880684 9.068073276)
            (19.80769231 7.181551754 9.336644377)
            (19.80769231 6.783301841 9.605838009)
            (19.80769231 6.384745015 9.875239096)
            (19.80769231 5.986495822 10.14443224)
            (19.80769231 5.589168335 10.41300237)
            (19.80769231 5.193375202 10.68053536)
            (19.80769231 4.799726708 10.9466187)
            (19.80769231 4.465152045 11.08726405)
            (19.80769231 3.999663478 11.18244597)
            (19.80769231 3.531638939 11.27814645)
            (19.80769231 3.061800087 11.3742179)
            (19.80769231 2.590871379 11.47051221)
            (19.80769231 2.119578952 11.56688089)
            (19.80769231 1.648649506 11.66317535)
            (19.80769231 1.17880918 11.75924711)
            (19.80769231 0.7107824338 11.85494803)
            (19.80769231 0.2452909307 11.95013055)
            (19.80769231 -0.1176031 11.95204505)
            (19.80769231 -0.5840776169 11.86184796)
            (19.80769231 -1.053092657 11.77115963)
            (19.80769231 -1.523925032 11.68011991)
            (19.80769231 -1.995848754 11.58886916)
            (19.80769231 -2.46813615 11.4975481)
            (19.80769231 -2.940058986 11.40629752)
            (19.80769231 -3.410889592 11.31525814)
            (19.80769231 -3.879901982 11.22457033)
            (19.80769231 -4.346372973 11.13437392)
            (19.80769231 -4.682413208 10.99730283)
            (19.80769231 -5.078874553 10.73545158)
            (19.80769231 -5.4774957 10.47217384)
            (19.80769231 -5.877662004 10.20787556)
            (19.80769231 -6.27875644 9.942964287)
            (19.80769231 -6.680160546 9.677848482)
            (19.80769231 -7.081255388 9.412936937)
            (19.80769231 -7.481422508 9.148638126)
            (19.80769231 -7.880044874 8.88535958)
            (19.80769231 -8.276507841 8.623507254)
            (18.92881846 8.628545173 -3.60199148)
            (19.02709731 8.808981632 -3.468518466)
            (19.10094733 8.982344527 -3.27736264)
            (19.15025463 9.148366548 -3.028818757)
            (19.17494319 9.306791699 -2.723270052)
            (19.17493115 9.381113886 -2.366620529)
            (19.15024015 9.408892565 -1.956736219)
            (19.10091865 9.408136082 -1.492963174)
            (19.02704269 9.378845614 -0.9760165183)
            (18.92872617 9.321066309 -0.4066933165)
            (18.80425366 9.271650611 0.1470729549)
            (18.7214696 9.274250036 0.5330676002)
            (18.77221876 9.349859848 0.6169338836)
            (18.82357616 9.412889567 0.6955889856)
            (18.87546261 9.463242006 0.7689116253)
            (18.92779811 9.500839527 0.8367887453)
            (18.98050195 9.525624157 0.8991156837)
            (19.03349288 9.537557678 0.9557963364)
            (19.08668919 9.53662169 1.006743307)
            (19.18395732 9.560504336 1.32121609)
            (19.1854122 8.388717255 1.234914952)
            (19.09592889 8.157956239 1.243270729)
            (19.03349211 7.959215859 1.775171853)
            (18.98050145 7.763577929 2.480683313)
            (18.92779786 7.556083818 3.176419156)
            (18.87546261 7.337053468 3.861306609)
            (18.82357641 7.106824608 4.534289624)
            (18.77221925 6.865752233 5.194330511)
            (18.72147032 6.614208059 5.840411533)
            (18.69984715 6.405639743 6.434614249)
            (18.92888714 6.614714456 6.547613426)
            (19.02714819 6.530101649 6.6739894)
            (19.1009779 6.389550668 6.816120621)
            (19.15026245 6.193278263 6.973787923)
            (19.17492583 5.941587051 7.146748201)
            (19.17492621 5.64053307 7.351862041)
            (19.15025562 5.302476168 7.624759135)
            (19.10096821 4.903909554 7.892411284)
            (19.02713999 4.445447792 8.154405787)
            (18.92888479 3.927797789 8.410338668)
            (19.72809023 9.132154552 -5.946225469)
            (19.71580071 9.341807931 -5.586461516)
            (19.70656671 9.541343135 -5.21789995)
            (19.70040249 9.730452498 -4.841109065)
            (19.69731755 9.908844428 -4.456669845)
            (19.69731663 10.07624386 -4.065175068)
            (19.70039976 10.23239266 -3.667228389)
            (19.70656216 10.37705008 -3.263443415)
            (19.71579072 10.50797309 -2.846202255)
            (19.72807253 10.62568784 -2.419118228)
            (19.71018975 10.69894582 -2.01062732)
            (19.66216975 10.72763385 -1.621359556)
            (19.61728858 10.74367119 -1.227787754)
            (19.57561546 10.74703311 -0.8305187721)
            (19.53721464 10.73771442 -0.4301651709)
            (19.28459309 10.57923923 0.3464330511)
            (18.9911275 10.38038245 1.200868511)
            (19.02013418 10.3746618 1.328746826)
            (19.07866583 10.37363194 1.384803548)
            (19.13733321 10.3584434 1.43446509)
            (19.16587946 9.187248751 1.323436733)
            (19.07866505 8.951911441 1.554442274)
            (19.02013369 8.750029123 2.340272477)
            (18.9618283 8.534769587 3.116543568)
            (18.90383878 8.30646475 3.882058591)
            (18.84625454 8.065466639 4.635637179)
            (18.99306131 8.192561966 5.111401375)
            (19.43935526 8.865400209 5.184861891)
            (19.71681597 9.240318183 5.387249289)
            (19.72840982 9.156553764 5.792755244)
            (19.72806529 8.988476649 6.161477786)
            (19.71577824 8.736323742 6.492838474)
            (19.70654699 8.472169527 6.81821771)
            (19.70038575 8.196421312 7.13711378)
            (19.69730404 7.909504279 7.449034973)
            (19.69730661 7.611860834 7.753500327)
            (19.70039344 7.303949919 8.050040378)
            (19.70655979 6.986246315 8.338197884)
            (19.71579543 6.650813564 8.618838359)
            (19.72808639 6.301201693 8.891057639)
            (19.16729025 9.340214735 -6.410479178)
            (19.17329133 9.545796548 -6.054435078)
            (19.17832884 9.746395434 -5.685240792)
            (19.18169174 9.941539627 -5.303424566)
            (19.18337485 10.13092823 -4.909575135)
            (19.18337557 10.31426922 -4.504299786)
            (19.1816939 10.49127989 -4.088223425)
            (19.17833243 10.66168731 -3.661987609)
            (19.17329634 10.82522873 -3.226249566)
            (19.1672399 10.98180131 -2.781718879)
            (19.1672301 11.08253826 -2.348454285)
            (19.17329529 11.13612044 -1.940602044)
            (19.1783295 11.18014601 -1.522716538)
            (19.18168957 11.21430462 -1.095258611)
            (19.1833703 11.23854362 -0.6588873722)
            (19.18336911 11.25282563 -0.2142756758)
            (19.181686 11.25712862 0.2378909203)
            (19.17832356 11.25144596 0.6969152082)
            (19.17328697 11.23578641 1.162089405)
            (19.16731357 11.21045249 1.632485555)
            (19.14634421 9.985882416 1.41196984)
            (19.07064093 9.761230472 2.047975062)
            (19.00677356 9.54094357 2.905445405)
            (18.94315276 9.306059919 3.75248518)
            (19.38139628 9.99263825 3.936673677)
            (19.51834363 10.1859536 4.287465152)
            (19.51008924 10.13004107 4.73316329)
            (19.40520111 9.998511667 5.09553099)
            (19.312905 9.858600933 5.461322586)
            (19.2333432 9.7105246 5.829974056)
            (19.16728882 9.497003341 6.175892923)
            (19.17329083 9.262523245 6.505087519)
            (19.17832772 9.010199688 6.833992592)
            (19.18169005 8.740132113 7.161931018)
            (19.18337264 8.45273694 7.488397139)
            (19.1833729 8.148457311 7.81288757)
            (19.18169082 7.827762407 8.134901969)
            (19.178329 7.491146715 8.453943813)
            (19.17329262 7.13912927 8.769521162)
            (19.16727086 6.772534123 9.081312489)
            (19.18072786 9.576343322 -6.866300826)
            (19.1665215 9.781627553 -6.427562419)
            (19.15584811 9.982723506 -5.996028436)
            (19.14872412 10.1793211 -5.572364268)
            (19.14516054 10.37111721 -5.157223175)
            (19.14516286 10.55781609 -4.751245277)
            (19.14873107 10.73912986 -4.355056561)
            (19.1558571 10.94602234 -3.939390766)
            (19.16653199 11.15357486 -3.528412755)
            (19.18073935 11.36054015 -3.123642938)
            (19.18074241 11.47500223 -2.678969941)
            (19.16653681 11.49676211 -2.195067929)
            (19.15586438 11.51740921 -1.71943189)
            (19.14874158 11.5369117 -1.252795218)
            (19.14517939 11.5552395 -0.7958774333)
            (19.14518329 11.57236437 -0.3493830698)
            (19.14875329 11.58825989 0.0859994103)
            (19.14103456 11.57527067 0.5890289902)
            (19.13374958 11.55520721 1.096289092)
            (19.12733434 11.52889081 1.604725542)
            (19.13198038 10.79313791 1.602569363)
            (19.06261602 10.57062906 2.541556367)
            (19.34959507 11.02472932 2.936512594)
            (19.257463 10.96615559 3.367687917)
            (19.1746774 10.88565968 3.750273761)
            (19.19262768 10.83705445 4.144165635)
            (19.20888094 10.77184185 4.541981334)
            (19.20083503 10.60363166 4.972662628)
            (19.1935412 10.4286048 5.40276763)
            (19.18973674 10.2574744 5.828064536)
            (19.18072828 10.00304634 6.233389184)
            (19.16653051 9.665720936 6.618117919)
            (19.15586366 9.333467292 6.996164408)
            (19.14874412 9.007254868 7.365769182)
            (19.14518147 8.699934357 7.694583618)
            (19.14518298 8.396309336 8.022430628)
            (19.14874867 8.096847974 8.348804695)
            (19.15587302 7.802012018 8.673202575)
            (19.16654505 7.512256085 8.995124068)
            (19.18074832 7.228026957 9.314072794)
            (19.15126764 9.666606975 -6.987633366)
            (19.15891667 9.872730215 -6.592754445)
            (19.16466648 10.08342082 -6.218046661)
            (19.17401773 10.28753227 -5.816541152)
            (19.18169995 10.48934542 -5.400251131)
            (19.18170249 10.69379409 -4.982822787)
            (19.17402536 10.90056304 -4.564899765)
            (19.16466966 11.10409676 -4.134142831)
            (19.15892111 11.29947252 -3.679788993)
            (19.15126997 11.49121421 -3.214502171)
            (19.15127018 11.60483643 -2.756518159)
            (19.16636867 11.6319604 -2.300436063)
            (19.20976455 11.62157555 -1.810804272)